LAMMPS data file. CGCMM style. atom_style full generated by VMD/TopoTools v1.7 on Thu Dec 26 20:32:42 +0330 2019
 500 atoms
 2 bonds
 0 angles
 0 dihedrals
 0 impropers
 2 atom types
 1 bond types
 0 angle types
 0 dihedral types
 0 improper types
 -0.500000 0.500000  xlo xhi
 -0.500000 0.500000  ylo yhi
 -0.500000 0.500000  zlo zhi

# Pair Coeffs
#
# 1  AL
# 2  O

# Bond Coeffs
#
# 1  

 Masses

 1 26.981539 # AL
 2 15.999400 # O

 Atoms # full

1 1 1 0.000000 50.814999 13.422000 52.397999 # AL UNL
2 2 1 0.000000 51.713001 8.005000 52.960999 # AL UNL
3 3 2 0.000000 51.104000 11.832000 46.669998 # O HOH
4 4 2 0.000000 50.257000 16.641001 58.013000 # O HOH
5 5 2 0.000000 52.710999 1.893000 56.945999 # O HOH
6 1 1 0.000000 89.511002 6.082000 61.201000 # AL UNL
7 2 1 0.000000 91.711998 10.891000 59.617001 # AL UNL
8 3 2 0.000000 88.410004 9.359000 66.046997 # O HOH
9 4 2 0.000000 89.967003 1.344000 56.782001 # O HOH
10 5 2 0.000000 95.188004 15.255000 54.811001 # O HOH
11 1 1 0.000000 20.357000 6.003000 82.346001 # AL UNL
12 2 1 0.000000 24.657000 8.131000 85.074997 # AL UNL
13 3 2 0.000000 24.830999 3.570000 79.264999 # O HOH
14 4 2 0.000000 14.560000 7.824000 84.642998 # O HOH
15 5 2 0.000000 27.681999 12.271000 90.361000 # O HOH
16 1 1 0.000000 9.520000 6.838000 69.575996 # AL UNL
17 2 1 0.000000 12.881000 10.993000 68.194000 # AL UNL
18 3 2 0.000000 12.575000 4.261000 65.164001 # O HOH
19 4 2 0.000000 5.436000 8.200000 74.440002 # O HOH
20 5 2 0.000000 15.497000 17.840000 68.913002 # O HOH
21 1 1 0.000000 14.108000 15.229000 66.185997 # AL UNL
22 2 1 0.000000 18.878000 12.451000 66.216003 # AL UNL
23 3 2 0.000000 15.173000 14.960000 60.335999 # O HOH
24 4 2 0.000000 11.612000 16.327000 72.082001 # O HOH
25 5 2 0.000000 24.448999 9.006000 69.581001 # O HOH
26 1 1 0.000000 31.364000 7.031000 52.764000 # AL UNL
27 2 1 0.000000 31.629999 12.395000 51.488998 # AL UNL
28 3 2 0.000000 31.164000 9.392000 58.223999 # O HOH
29 4 2 0.000000 31.487000 3.050000 47.632999 # O HOH
30 5 2 0.000000 32.088001 18.000000 46.734001 # O HOH
31 1 1 0.000000 72.556000 9.002000 8.422000 # AL UNL
32 2 1 0.000000 67.569000 8.947000 10.787000 # AL UNL
33 3 2 0.000000 74.074997 10.237000 14.043000 # O HOH
34 4 2 0.000000 72.508003 7.772000 2.044000 # O HOH
35 5 2 0.000000 60.245998 8.173000 10.655000 # O HOH
36 1 1 0.000000 110.306999 7.087000 83.514999 # AL UNL
37 2 1 0.000000 105.310997 9.114000 82.334000 # AL UNL
38 3 2 0.000000 107.906998 7.133000 88.961998 # O HOH
39 4 2 0.000000 114.218002 6.437000 78.370003 # O HOH
40 5 2 0.000000 100.204002 11.714000 77.708000 # O HOH
41 1 1 0.000000 74.271004 9.994000 57.535999 # AL UNL
42 2 1 0.000000 72.324997 13.741000 61.091000 # AL UNL
43 3 2 0.000000 71.864998 13.875000 53.717999 # O HOH
44 4 2 0.000000 77.278999 4.961000 60.331001 # O HOH
45 5 2 0.000000 71.171997 16.388000 67.865997 # O HOH
46 1 1 0.000000 89.330002 7.121000 22.966999 # AL UNL
47 2 1 0.000000 93.972000 4.135000 22.886999 # AL UNL
48 3 2 0.000000 89.334999 5.087000 28.561001 # O HOH
49 4 2 0.000000 87.943001 10.064000 17.344999 # O HOH
50 5 2 0.000000 99.981003 1.425000 19.604000 # O HOH
51 1 1 0.000000 115.068001 7.729000 45.741001 # AL UNL
52 2 1 0.000000 109.676003 8.227000 44.672001 # AL UNL
53 3 2 0.000000 112.917000 7.706000 51.291000 # O HOH
54 4 2 0.000000 118.845001 7.603000 40.458000 # O HOH
55 5 2 0.000000 103.915001 8.885000 40.131001 # O HOH
56 1 1 0.000000 83.309998 9.767000 79.703003 # AL UNL
57 2 1 0.000000 81.168999 5.119000 77.634003 # AL UNL
58 3 2 0.000000 84.401001 6.040000 84.213997 # O HOH
59 4 2 0.000000 82.845001 14.913000 75.766998 # O HOH
60 5 2 0.000000 77.777000 1.217000 72.389000 # O HOH
61 1 1 0.000000 111.512001 2.656000 50.945999 # AL UNL
62 2 1 0.000000 107.969002 6.852000 50.388000 # AL UNL
63 3 2 0.000000 110.450996 3.870000 56.675999 # O HOH
64 4 2 0.000000 113.638000 0.182000 45.327999 # O HOH
65 5 2 0.000000 103.984001 11.597000 46.408001 # O HOH
66 1 1 0.000000 32.062000 4.013000 12.905000 # AL UNL
67 2 1 0.000000 32.264999 9.371000 11.594000 # AL UNL
68 3 2 0.000000 26.933001 5.850000 15.302000 # O HOH
69 4 2 0.000000 37.178001 0.564000 10.875000 # O HOH
70 5 2 0.000000 35.445000 15.267000 8.533000 # O HOH
71 1 1 0.000000 23.840000 7.548000 92.566002 # AL UNL
72 2 1 0.000000 23.052999 4.637000 87.941002 # AL UNL
73 3 2 0.000000 26.349001 2.391000 94.161003 # O HOH
74 4 2 0.000000 21.542000 13.619000 92.332001 # O HOH
75 5 2 0.000000 20.607000 3.800000 81.045998 # O HOH
76 1 1 0.000000 113.688004 10.031000 9.240000 # AL UNL
77 2 1 0.000000 116.250999 6.600000 12.723000 # AL UNL
78 3 2 0.000000 115.403999 5.796000 5.427000 # O HOH
79 4 2 0.000000 111.192001 15.328000 12.052000 # O HOH
80 5 2 0.000000 118.595001 4.565000 19.400999 # O HOH
81 1 1 0.000000 81.123001 3.331000 43.712002 # AL UNL
82 2 1 0.000000 78.143997 6.778000 40.595001 # AL UNL
83 3 2 0.000000 80.675003 0.089000 38.740002 # O HOH
84 4 2 0.000000 82.460999 5.577000 49.658001 # O HOH
85 5 2 0.000000 74.540001 13.085000 39.384998 # O HOH
86 1 1 0.000000 48.705002 9.489000 12.079000 # AL UNL
87 2 1 0.000000 49.609001 9.529000 17.524000 # AL UNL
88 3 2 0.000000 51.828999 4.454000 12.635000 # O HOH
89 4 2 0.000000 45.282001 14.560000 9.896000 # O HOH
90 5 2 0.000000 49.002998 12.444000 24.260000 # O HOH
91 1 1 0.000000 34.160000 10.326000 16.969999 # AL UNL
92 2 1 0.000000 39.236000 12.185000 18.087000 # AL UNL
93 3 2 0.000000 35.048000 7.760000 22.267000 # O HOH
94 4 2 0.000000 31.752001 12.361000 11.291000 # O HOH
95 5 2 0.000000 45.305000 16.052000 16.521999 # O HOH
96 1 1 0.000000 84.082001 7.327000 57.800999 # AL UNL
97 2 1 0.000000 89.567001 6.980000 57.284000 # AL UNL
98 3 2 0.000000 85.598999 6.519000 63.500000 # O HOH
99 4 2 0.000000 80.918999 8.244000 52.202000 # O HOH
100 5 2 0.000000 95.808998 6.991000 53.375999 # O HOH
101 1 1 0.000000 108.174004 12.736000 74.494003 # AL UNL
102 2 1 0.000000 105.304001 9.071000 71.525002 # AL UNL
103 3 2 0.000000 112.324997 11.152000 70.532997 # O HOH
104 4 2 0.000000 104.837997 15.425000 79.375999 # O HOH
105 5 2 0.000000 99.228996 5.226000 69.932999 # O HOH
106 1 1 0.000000 16.080000 5.904000 46.087002 # AL UNL
107 2 1 0.000000 10.606000 5.263000 46.396999 # AL UNL
108 3 2 0.000000 14.429000 11.567000 46.880001 # O HOH
109 4 2 0.000000 19.375999 0.378000 45.195000 # O HOH
110 5 2 0.000000 4.455000 1.213000 46.348999 # O HOH
111 1 1 0.000000 70.833000 14.659000 75.671997 # AL UNL
112 2 1 0.000000 70.603996 12.457000 70.614998 # AL UNL
113 3 2 0.000000 76.031998 16.563999 73.489998 # O HOH
114 4 2 0.000000 65.653000 13.390000 79.379997 # O HOH
115 5 2 0.000000 67.352997 8.523000 65.306000 # O HOH
116 1 1 0.000000 16.518000 16.061001 85.404999 # AL UNL
117 2 1 0.000000 13.006000 12.544000 83.003998 # AL UNL
118 3 2 0.000000 11.388000 17.995001 87.723000 # O HOH
119 4 2 0.000000 22.742001 15.157000 83.779999 # O HOH
120 5 2 0.000000 11.373000 6.890000 78.577003 # O HOH
121 1 1 0.000000 85.609001 6.971000 27.240000 # AL UNL
122 2 1 0.000000 86.125999 12.320000 28.500000 # AL UNL
123 3 2 0.000000 84.027000 9.404000 22.044001 # O HOH
124 4 2 0.000000 87.053001 2.922000 32.110001 # O HOH
125 5 2 0.000000 87.695999 17.865000 33.085999 # O HOH
126 1 1 0.000000 78.431999 4.632000 64.088997 # AL UNL
127 2 1 0.000000 72.933998 4.483000 64.563004 # AL UNL
128 3 2 0.000000 76.887001 6.870000 58.793999 # O HOH
129 4 2 0.000000 81.627998 2.417000 69.292999 # O HOH
130 5 2 0.000000 66.692001 3.019000 68.185997 # O HOH
131 1 1 0.000000 83.096001 12.280000 63.083000 # AL UNL
132 2 1 0.000000 87.005997 8.507000 64.057999 # AL UNL
133 3 2 0.000000 84.281998 10.569000 57.506001 # O HOH
134 4 2 0.000000 80.735001 15.130000 68.420998 # O HOH
135 5 2 0.000000 91.394997 4.593000 68.489998 # O HOH
136 1 1 0.000000 52.723000 6.714000 89.257004 # AL UNL
137 2 1 0.000000 57.356998 9.685000 88.851997 # AL UNL
138 3 2 0.000000 51.167000 10.449000 84.890999 # O HOH
139 4 2 0.000000 52.912998 2.060000 93.783997 # O HOH
140 5 2 0.000000 64.244003 11.410000 90.808998 # O HOH
141 1 1 0.000000 10.201000 11.105000 79.624001 # AL UNL
142 2 1 0.000000 15.262000 13.251000 80.130997 # AL UNL
143 3 2 0.000000 10.504000 11.624000 85.545998 # O HOH
144 4 2 0.000000 8.389000 9.943000 73.495003 # O HOH
145 5 2 0.000000 21.643000 15.736000 77.422997 # O HOH
146 1 1 0.000000 63.882000 5.540000 49.952999 # AL UNL
147 2 1 0.000000 63.058998 10.985000 50.337002 # AL UNL
148 3 2 0.000000 69.322998 7.500000 48.543999 # O HOH
149 4 2 0.000000 58.634998 1.941000 51.259998 # O HOH
150 5 2 0.000000 58.901001 16.923000 51.634998 # O HOH
151 1 1 0.000000 96.865997 8.871000 72.417999 # AL UNL
152 2 1 0.000000 94.281998 13.415000 70.641998 # AL UNL
153 3 2 0.000000 101.568001 12.280000 71.112999 # O HOH
154 4 2 0.000000 92.889999 4.078000 74.263000 # O HOH
155 5 2 0.000000 88.263000 17.361000 69.084000 # O HOH
156 1 1 0.000000 10.828000 7.030000 66.247002 # AL UNL
157 2 1 0.000000 9.568000 7.762000 71.570999 # AL UNL
158 3 2 0.000000 15.622000 10.079000 68.023003 # O HOH
159 4 2 0.000000 6.364000 3.735000 62.868999 # O HOH
160 5 2 0.000000 5.212000 6.978000 77.457001 # O HOH
161 1 1 0.000000 47.081001 12.672000 82.287003 # AL UNL
162 2 1 0.000000 46.618999 7.753000 84.749001 # AL UNL
163 3 2 0.000000 48.648998 9.118000 77.777000 # O HOH
164 4 2 0.000000 45.634998 17.724001 86.105003 # O HOH
165 5 2 0.000000 45.129002 3.404000 90.501999 # O HOH
166 1 1 0.000000 32.484001 15.795000 54.557999 # AL UNL
167 2 1 0.000000 37.617001 13.910000 55.319000 # AL UNL
168 3 2 0.000000 34.740002 16.747999 49.132999 # O HOH
169 4 2 0.000000 28.680000 15.394000 59.807999 # O HOH
170 5 2 0.000000 42.981998 10.929000 59.388000 # O HOH
171 1 1 0.000000 92.454002 10.391000 82.842003 # AL UNL
172 2 1 0.000000 88.051003 7.275000 84.014999 # AL UNL
173 3 2 0.000000 88.105003 14.294000 81.708000 # O HOH
174 4 2 0.000000 98.153999 7.380000 83.637001 # O HOH
175 5 2 0.000000 84.820000 1.021000 86.178001 # O HOH
176 1 1 0.000000 70.630997 4.992000 24.940001 # AL UNL
177 2 1 0.000000 69.885002 5.308000 19.480000 # AL UNL
178 3 2 0.000000 73.727997 0.214000 23.205999 # O HOH
179 4 2 0.000000 67.727997 9.721000 28.316999 # O HOH
180 5 2 0.000000 67.158997 8.433000 13.394000 # O HOH
181 1 1 0.000000 60.326000 13.047000 48.187000 # AL UNL
182 2 1 0.000000 65.570000 12.086000 49.619999 # AL UNL
183 3 2 0.000000 62.543999 11.400000 42.915001 # O HOH
184 4 2 0.000000 56.527000 14.995000 53.082001 # O HOH
185 5 2 0.000000 71.099998 11.779000 54.473999 # O HOH
186 1 1 0.000000 59.215000 9.409000 49.251999 # AL UNL
187 2 1 0.000000 54.818001 12.681000 49.904999 # AL UNL
188 3 2 0.000000 61.196999 12.926000 53.625999 # O HOH
189 4 2 0.000000 58.525002 4.885000 44.641998 # O HOH
190 5 2 0.000000 47.995998 14.920000 48.264000 # O HOH
191 1 1 0.000000 104.819000 3.765000 20.302000 # AL UNL
192 2 1 0.000000 109.857002 3.043000 22.438999 # AL UNL
193 3 2 0.000000 108.102997 4.211000 15.357000 # O HOH
194 4 2 0.000000 100.004997 3.531000 24.656000 # O HOH
195 5 2 0.000000 114.514999 1.853000 28.017000 # O HOH
196 1 1 0.000000 43.196999 8.171000 47.598999 # AL UNL
197 2 1 0.000000 47.716999 5.022000 47.236000 # AL UNL
198 3 2 0.000000 41.855999 3.988000 51.616001 # O HOH
199 4 2 0.000000 43.203999 13.330000 43.653000 # O HOH
200 5 2 0.000000 54.332001 3.322000 44.483002 # O HOH
201 1 1 0.000000 4.502000 8.496000 37.984001 # AL UNL
202 2 1 0.000000 4.423000 11.158000 33.148998 # AL UNL
203 3 2 0.000000 4.263000 3.855000 34.264999 # O HOH
204 4 2 0.000000 4.768000 12.389000 43.178001 # O HOH
205 5 2 0.000000 4.455000 17.242001 29.000000 # O HOH
206 1 1 0.000000 18.569000 15.363000 38.403000 # AL UNL
207 2 1 0.000000 20.888000 10.355000 38.259998 # AL UNL
208 3 2 0.000000 20.351999 15.220000 32.724998 # O HOH
209 4 2 0.000000 16.080000 16.997999 44.174999 # O HOH
210 5 2 0.000000 22.878000 3.951000 41.304001 # O HOH
211 1 1 0.000000 84.603996 10.064000 87.003998 # AL UNL
212 2 1 0.000000 87.794998 6.423000 89.655998 # AL UNL
213 3 2 0.000000 89.772003 13.017000 86.973000 # O HOH
214 4 2 0.000000 78.438004 8.167000 86.245003 # O HOH
215 5 2 0.000000 88.988998 0.028000 93.108002 # O HOH
216 1 1 0.000000 5.069000 16.066000 45.182999 # AL UNL
217 2 1 0.000000 5.872000 11.336000 47.914001 # AL UNL
218 3 2 0.000000 0.720000 16.466999 49.227001 # O HOH
219 4 2 0.000000 9.219000 17.070000 40.287998 # O HOH
220 5 2 0.000000 9.385000 4.983000 49.151001 # O HOH
221 1 1 0.000000 97.911003 12.355000 87.882004 # AL UNL
222 2 1 0.000000 95.346001 9.330000 84.042999 # AL UNL
223 3 2 0.000000 96.116997 7.767000 91.223000 # O HOH
224 4 2 0.000000 100.485001 17.886999 85.652000 # O HOH
225 5 2 0.000000 93.043999 8.019000 77.170998 # O HOH
226 1 1 0.000000 44.132999 14.173000 64.109001 # AL UNL
227 2 1 0.000000 46.889999 10.004000 61.764999 # AL UNL
228 3 2 0.000000 43.123001 15.377000 58.368000 # O HOH
229 4 2 0.000000 44.333000 14.199000 70.601997 # O HOH
230 5 2 0.000000 51.035000 3.921000 61.992001 # O HOH
231 1 1 0.000000 49.576000 14.566000 71.716003 # AL UNL
232 2 1 0.000000 45.945999 10.424000 72.099998 # AL UNL
233 3 2 0.000000 49.033001 14.224000 77.634003 # O HOH
234 4 2 0.000000 51.205002 16.143000 65.628998 # O HOH
235 5 2 0.000000 41.554001 5.255000 69.232002 # O HOH
236 1 1 0.000000 71.429001 13.434000 19.625999 # AL UNL
237 2 1 0.000000 76.775002 13.790000 20.952999 # AL UNL
238 3 2 0.000000 73.787003 14.109000 14.203000 # O HOH
239 4 2 0.000000 67.457001 12.647000 24.705000 # O HOH
240 5 2 0.000000 82.359001 13.868000 25.754999 # O HOH
241 1 1 0.000000 14.509000 3.231000 20.124001 # AL UNL
242 2 1 0.000000 16.426001 7.930000 17.952999 # AL UNL
243 3 2 0.000000 18.106001 4.999000 24.524000 # O HOH
244 4 2 0.000000 10.307000 0.047000 16.329000 # O HOH
245 5 2 0.000000 16.864000 13.011000 12.640000 # O HOH
246 1 1 0.000000 82.735001 6.839000 87.567001 # AL UNL
247 2 1 0.000000 78.517998 9.735000 89.640999 # AL UNL
248 3 2 0.000000 81.219002 3.321000 92.123001 # O HOH
249 4 2 0.000000 85.521004 9.527000 82.350998 # O HOH
250 5 2 0.000000 73.918999 15.485000 89.737000 # O HOH
251 1 1 0.000000 63.445000 4.966000 83.744003 # AL UNL
252 2 1 0.000000 60.646000 9.596000 84.838997 # AL UNL
253 3 2 0.000000 62.409000 6.871000 78.200996 # O HOH
254 4 2 0.000000 65.324997 1.665000 89.013000 # O HOH
255 5 2 0.000000 57.610001 14.510000 89.407997 # O HOH
256 1 1 0.000000 91.319000 7.741000 83.589996 # AL UNL
257 2 1 0.000000 92.071999 12.344000 80.638000 # AL UNL
258 3 2 0.000000 96.302002 9.781000 86.126999 # O HOH
259 4 2 0.000000 86.065002 4.311000 81.908997 # O HOH
260 5 2 0.000000 90.213997 17.146000 75.372002 # O HOH
261 1 1 0.000000 105.092003 13.394000 16.471001 # AL UNL
262 2 1 0.000000 103.625000 8.227000 17.740999 # AL UNL
263 3 2 0.000000 108.463997 10.390000 12.593000 # O HOH
264 4 2 0.000000 102.125999 17.966000 20.006001 # O HOH
265 5 2 0.000000 99.807999 3.242000 21.591000 # O HOH
266 1 1 0.000000 105.926003 6.104000 74.429001 # AL UNL
267 2 1 0.000000 101.880997 2.503000 73.360001 # AL UNL
268 3 2 0.000000 107.632004 1.585000 77.907997 # O HOH
269 4 2 0.000000 105.408997 11.737000 71.237000 # O HOH
270 5 2 0.000000 95.672997 0.409000 69.998001 # O HOH
271 1 1 0.000000 98.945999 13.451000 76.011002 # AL UNL
272 2 1 0.000000 99.894997 8.099000 75.046997 # AL UNL
273 3 2 0.000000 104.727997 13.672000 74.615997 # O HOH
274 4 2 0.000000 92.827003 14.821000 77.707001 # O HOH
275 5 2 0.000000 97.837997 1.043000 74.591003 # O HOH
276 1 1 0.000000 21.915001 13.135000 22.882999 # AL UNL
277 2 1 0.000000 27.381001 13.707000 23.400000 # AL UNL
278 3 2 0.000000 22.440001 12.663000 28.792999 # O HOH
279 4 2 0.000000 19.757999 13.441000 16.763000 # O HOH
280 5 2 0.000000 34.161999 14.717000 20.709999 # O HOH
281 1 1 0.000000 31.715000 11.267000 41.314999 # AL UNL
282 2 1 0.000000 28.367001 8.211000 44.464001 # AL UNL
283 3 2 0.000000 26.559000 12.135000 38.470001 # O HOH
284 4 2 0.000000 37.916000 11.300000 43.248001 # O HOH
285 5 2 0.000000 26.961000 3.760000 50.160000 # O HOH
286 1 1 0.000000 92.167000 8.010000 23.403999 # AL UNL
287 2 1 0.000000 87.353996 5.343000 22.955999 # AL UNL
288 3 2 0.000000 91.578003 6.016000 28.981001 # O HOH
289 4 2 0.000000 94.194000 10.817000 17.908001 # O HOH
290 5 2 0.000000 81.457001 3.023000 19.205000 # O HOH
291 1 1 0.000000 60.861000 9.246000 65.935997 # AL UNL
292 2 1 0.000000 56.438999 7.735000 62.997002 # AL UNL
293 3 2 0.000000 58.514999 5.204000 69.621002 # O HOH
294 4 2 0.000000 64.546997 13.775000 63.090000 # O HOH
295 5 2 0.000000 52.046001 8.077000 57.097000 # O HOH
296 1 1 0.000000 72.712997 4.886000 11.700000 # AL UNL
297 2 1 0.000000 69.426003 9.121000 13.019000 # AL UNL
298 3 2 0.000000 76.669998 8.476000 14.324000 # O HOH
299 4 2 0.000000 69.696999 0.002000 8.659000 # O HOH
300 5 2 0.000000 62.919998 12.564000 13.235000 # O HOH
301 1 1 0.000000 25.827999 8.622000 64.014999 # AL UNL
302 2 1 0.000000 30.884001 6.699000 65.111000 # AL UNL
303 3 2 0.000000 27.704000 7.463000 58.486000 # O HOH
304 4 2 0.000000 22.427999 10.365000 69.267998 # O HOH
305 5 2 0.000000 36.366001 4.867000 69.675003 # O HOH
306 1 1 0.000000 47.119999 10.095000 28.518999 # AL UNL
307 2 1 0.000000 45.348999 6.683000 32.480000 # AL UNL
308 3 2 0.000000 48.546001 13.289000 33.334999 # O HOH
309 4 2 0.000000 46.208000 7.886000 22.479000 # O HOH
310 5 2 0.000000 42.244999 0.448000 34.873001 # O HOH
311 1 1 0.000000 56.216000 7.015000 27.094999 # AL UNL
312 2 1 0.000000 60.264000 4.138000 24.684000 # AL UNL
313 3 2 0.000000 57.875000 3.565000 31.653000 # O HOH
314 4 2 0.000000 53.335999 11.354000 23.212000 # O HOH
315 5 2 0.000000 64.563004 2.373000 18.972000 # O HOH
316 1 1 0.000000 113.374001 4.982000 29.598000 # AL UNL
317 2 1 0.000000 108.511002 2.978000 31.274000 # AL UNL
318 3 2 0.000000 114.110001 5.309000 35.494999 # O HOH
319 4 2 0.000000 114.078003 5.250000 23.146000 # O HOH
320 5 2 0.000000 101.795998 0.196000 30.091999 # O HOH
321 1 1 0.000000 24.389000 2.330000 30.233999 # AL UNL
322 2 1 0.000000 26.823000 7.250000 29.648001 # AL UNL
323 3 2 0.000000 28.165001 1.085000 25.804001 # O HOH
324 4 2 0.000000 19.853001 2.122000 34.877998 # O HOH
325 5 2 0.000000 27.827000 14.330000 31.409000 # O HOH
326 1 1 0.000000 52.853001 10.177000 19.796000 # AL UNL
327 2 1 0.000000 50.551998 10.143000 14.779000 # AL UNL
328 3 2 0.000000 49.205002 14.852000 20.311001 # O HOH
329 4 2 0.000000 57.220001 5.468000 20.771000 # O HOH
330 5 2 0.000000 49.645000 7.442000 7.988000 # O HOH
331 1 1 0.000000 49.771999 9.286000 42.581001 # AL UNL
332 2 1 0.000000 51.221001 4.811000 39.689999 # AL UNL
333 3 2 0.000000 52.867001 6.344000 46.728001 # O HOH
334 4 2 0.000000 46.216999 13.586000 39.255001 # O HOH
335 5 2 0.000000 51.337002 0.689000 33.589001 # O HOH
336 1 1 0.000000 55.617001 1.174000 31.034000 # AL UNL
337 2 1 0.000000 59.021000 4.819000 28.667999 # AL UNL
338 3 2 0.000000 54.473000 0.070000 25.297001 # O HOH
339 4 2 0.000000 55.757999 1.202000 37.528000 # O HOH
340 5 2 0.000000 64.080002 10.166000 28.865999 # O HOH
341 1 1 0.000000 74.418999 6.337000 60.582001 # AL UNL
342 2 1 0.000000 78.430000 7.638000 64.143997 # AL UNL
343 3 2 0.000000 71.401001 9.912000 64.262001 # O HOH
344 4 2 0.000000 76.269997 2.341000 55.806999 # O HOH
345 5 2 0.000000 85.341003 7.290000 66.665001 # O HOH
346 1 1 0.000000 72.475998 8.846000 86.924004 # AL UNL
347 2 1 0.000000 67.907997 6.844000 84.556999 # AL UNL
348 3 2 0.000000 69.087997 8.043000 91.751999 # O HOH
349 4 2 0.000000 77.254997 10.253000 82.754997 # O HOH
350 5 2 0.000000 63.918999 4.708000 78.747002 # O HOH
351 1 1 0.000000 13.020000 7.055000 72.866997 # AL UNL
352 2 1 0.000000 10.550000 10.578000 69.407997 # AL UNL
353 3 2 0.000000 7.389000 5.184000 73.347000 # O HOH
354 4 2 0.000000 19.438000 7.894000 73.411003 # O HOH
355 5 2 0.000000 10.552000 16.204000 64.655998 # O HOH
356 1 1 0.000000 90.462997 5.722000 15.185000 # AL UNL
357 2 1 0.000000 90.865997 3.629000 20.278000 # AL UNL
358 3 2 0.000000 95.620003 2.791000 14.684000 # O HOH
359 4 2 0.000000 85.139000 9.302000 14.175000 # O HOH
360 5 2 0.000000 88.456001 2.585000 27.158001 # O HOH
361 1 1 0.000000 104.306000 9.363000 61.224998 # AL UNL
362 2 1 0.000000 107.945000 13.287000 59.868000 # AL UNL
363 3 2 0.000000 105.184998 11.837000 66.567001 # O HOH
364 4 2 0.000000 102.334999 5.699000 56.237000 # O HOH
365 5 2 0.000000 112.156998 16.962000 55.074001 # O HOH
366 1 1 0.000000 40.311001 6.954000 13.497000 # AL UNL
367 2 1 0.000000 35.341999 8.084000 11.375000 # AL UNL
368 3 2 0.000000 40.415001 12.899000 13.756000 # O HOH
369 4 2 0.000000 41.686001 0.616000 13.866000 # O HOH
370 5 2 0.000000 28.847000 6.168000 8.480000 # O HOH
371 1 1 0.000000 63.562000 9.508000 55.388000 # AL UNL
372 2 1 0.000000 58.334999 9.281000 57.148998 # AL UNL
373 3 2 0.000000 63.115002 14.857000 57.959999 # O HOH
374 4 2 0.000000 65.569000 4.176000 52.266998 # O HOH
375 5 2 0.000000 51.820000 5.946000 57.966999 # O HOH
376 1 1 0.000000 7.291000 8.874000 26.972000 # AL UNL
377 2 1 0.000000 9.961000 13.258000 29.003000 # AL UNL
378 3 2 0.000000 10.376000 10.518000 22.153000 # O HOH
379 4 2 0.000000 3.383000 5.910000 31.229000 # O HOH
380 5 2 0.000000 11.666000 18.000000 34.373001 # O HOH
381 1 1 0.000000 17.794001 11.509000 94.894997 # AL UNL
382 2 1 0.000000 17.448999 13.308000 89.686996 # AL UNL
383 3 2 0.000000 14.797000 16.580000 95.758003 # O HOH
384 4 2 0.000000 20.921000 5.857000 95.573997 # O HOH
385 5 2 0.000000 18.705999 12.755000 82.452003 # O HOH
386 1 1 0.000000 88.153999 6.874000 38.986000 # AL UNL
387 2 1 0.000000 89.386002 8.444000 33.839001 # AL UNL
388 3 2 0.000000 91.242996 2.118000 37.175999 # O HOH
389 4 2 0.000000 84.669998 11.207000 42.345001 # O HOH
390 5 2 0.000000 89.225998 13.180000 28.202000 # O HOH
391 1 1 0.000000 51.839001 11.940000 76.550003 # AL UNL
392 2 1 0.000000 48.382000 7.801000 75.367996 # AL UNL
393 3 2 0.000000 51.827000 9.091000 81.777000 # O HOH
394 4 2 0.000000 52.881001 16.047001 71.626999 # O HOH
395 5 2 0.000000 43.912998 4.061000 70.866997 # O HOH
396 1 1 0.000000 83.406998 9.193000 70.705002 # AL UNL
397 2 1 0.000000 83.299004 9.052000 65.186996 # AL UNL
398 3 2 0.000000 77.619003 8.123000 69.820999 # O HOH
399 4 2 0.000000 89.281998 10.316000 73.238998 # O HOH
400 5 2 0.000000 86.448997 9.478000 58.543999 # O HOH
401 1 1 0.000000 93.628998 15.938000 56.477001 # AL UNL
402 2 1 0.000000 95.498001 10.941000 55.058998 # AL UNL
403 3 2 0.000000 91.142998 15.404000 51.095001 # O HOH
404 4 2 0.000000 95.581001 17.965000 62.332001 # O HOH
405 5 2 0.000000 99.332001 4.774000 56.282001 # O HOH
406 1 1 0.000000 70.704002 6.291000 34.408001 # AL UNL
407 2 1 0.000000 74.974998 6.434000 37.903000 # AL UNL
408 3 2 0.000000 75.046997 4.414000 30.795000 # O HOH
409 4 2 0.000000 65.050003 8.144000 37.013000 # O HOH
410 5 2 0.000000 78.037003 7.685000 44.481998 # O HOH
411 1 1 0.000000 104.528000 11.991000 86.351997 # AL UNL
412 2 1 0.000000 105.824997 6.636000 86.016998 # AL UNL
413 3 2 0.000000 103.225998 10.977000 80.633003 # O HOH
414 4 2 0.000000 105.457001 14.610000 92.223000 # O HOH
415 5 2 0.000000 108.245003 0.277000 88.835999 # O HOH
416 1 1 0.000000 81.128998 2.445000 71.530998 # AL UNL
417 2 1 0.000000 77.964996 6.801000 72.750000 # AL UNL
418 3 2 0.000000 77.625999 0.032000 75.694000 # O HOH
419 4 2 0.000000 85.608002 3.583000 66.964996 # O HOH
420 5 2 0.000000 75.859001 13.813000 71.961998 # O HOH
421 1 1 0.000000 69.371002 10.207000 79.627998 # AL UNL
422 2 1 0.000000 65.810997 7.047000 76.832001 # AL UNL
423 3 2 0.000000 66.028999 8.202000 84.126999 # O HOH
424 4 2 0.000000 73.804001 13.171000 75.918999 # O HOH
425 5 2 0.000000 63.099998 4.094000 70.653999 # O HOH
426 1 1 0.000000 107.411003 3.574000 20.980000 # AL UNL
427 2 1 0.000000 112.209000 6.232000 20.362000 # AL UNL
428 3 2 0.000000 108.626999 4.828000 26.670000 # O HOH
429 4 2 0.000000 104.753998 1.517000 15.421000 # O HOH
430 5 2 0.000000 117.732002 8.961000 16.327000 # O HOH
431 1 1 0.000000 93.000999 6.082000 22.013000 # AL UNL
432 2 1 0.000000 89.318001 6.933000 26.035000 # AL UNL
433 3 2 0.000000 91.830002 11.850000 21.125000 # O HOH
434 4 2 0.000000 95.280998 0.007000 21.712000 # O HOH
435 5 2 0.000000 85.213997 4.757000 31.749001 # O HOH
436 1 1 0.000000 56.959000 7.611000 13.648000 # AL UNL
437 2 1 0.000000 61.771999 5.713000 11.723000 # AL UNL
438 3 2 0.000000 58.431000 12.071000 9.992000 # O HOH
439 4 2 0.000000 54.041000 3.674000 17.910999 # O HOH
440 5 2 0.000000 67.168999 0.719000 11.309000 # O HOH
441 1 1 0.000000 21.099001 6.786000 79.970001 # AL UNL
442 2 1 0.000000 24.448999 10.680000 81.991997 # AL UNL
443 3 2 0.000000 20.931999 10.706000 75.494003 # O HOH
444 4 2 0.000000 20.271999 1.669000 83.885002 # O HOH
445 5 2 0.000000 28.882000 13.494000 87.155998 # O HOH
446 1 1 0.000000 33.376999 13.199000 9.366000 # AL UNL
447 2 1 0.000000 28.999001 9.927000 8.590000 # AL UNL
448 3 2 0.000000 30.157000 16.643000 5.733000 # O HOH
449 4 2 0.000000 37.931999 10.697000 13.264000 # O HOH
450 5 2 0.000000 25.160000 3.733000 9.650000 # O HOH
451 1 1 0.000000 17.608000 4.173000 13.991000 # AL UNL
452 2 1 0.000000 17.275999 2.171000 8.857000 # AL UNL
453 3 2 0.000000 23.363001 3.066000 12.948000 # O HOH
454 4 2 0.000000 11.899000 5.886000 16.570999 # O HOH
455 5 2 0.000000 13.574000 0.208000 2.801000 # O HOH
456 1 1 0.000000 16.742001 9.987000 86.036003 # AL UNL
457 2 1 0.000000 15.773000 14.326000 82.764000 # AL UNL
458 3 2 0.000000 21.343000 13.452000 87.539001 # O HOH
459 4 2 0.000000 12.387000 5.199000 85.491997 # O HOH
460 5 2 0.000000 11.902000 17.976000 77.670998 # O HOH
461 1 1 0.000000 30.139999 11.141000 57.023998 # AL UNL
462 2 1 0.000000 25.288000 9.701000 54.819000 # AL UNL
463 3 2 0.000000 26.914000 10.488000 61.984001 # O HOH
464 4 2 0.000000 34.840000 12.227000 52.674000 # O HOH
465 5 2 0.000000 20.839001 8.208000 49.144001 # O HOH
466 1 1 0.000000 62.644001 13.206000 38.667999 # AL UNL
467 2 1 0.000000 59.939999 14.346000 33.992001 # AL UNL
468 3 2 0.000000 58.712002 17.184000 40.702999 # O HOH
469 4 2 0.000000 67.417999 8.851000 38.007000 # O HOH
470 5 2 0.000000 58.674000 13.560000 26.780001 # O HOH
471 1 1 0.000000 53.145000 7.434000 18.712999 # AL UNL
472 2 1 0.000000 50.842999 12.032000 16.707001 # AL UNL
473 3 2 0.000000 50.542000 9.512000 23.646000 # O HOH
474 4 2 0.000000 56.457001 3.967000 14.331000 # O HOH
475 5 2 0.000000 49.341000 16.806000 11.304000 # O HOH
476 1 1 0.000000 114.014000 8.543000 18.358999 # AL UNL
477 2 1 0.000000 113.905998 9.806000 23.732000 # AL UNL
478 3 2 0.000000 116.251999 3.520000 20.636999 # O HOH
479 4 2 0.000000 111.787003 13.238000 14.461000 # O HOH
480 5 2 0.000000 112.492996 14.296000 29.396000 # O HOH
481 1 1 0.000000 114.181000 13.933000 80.888000 # AL UNL
482 2 1 0.000000 113.320000 11.088000 85.540001 # AL UNL
483 3 2 0.000000 108.996002 16.306999 82.597000 # O HOH
484 4 2 0.000000 119.669998 12.385000 77.778999 # O HOH
485 5 2 0.000000 115.152000 6.054000 90.593002 # O HOH
486 1 1 0.000000 29.599001 8.531000 22.933001 # AL UNL
487 2 1 0.000000 27.860001 11.252000 27.410000 # AL UNL
488 3 2 0.000000 33.624001 12.914000 23.096001 # O HOH
489 4 2 0.000000 26.055000 3.298000 21.436001 # O HOH
490 5 2 0.000000 23.320000 12.284000 33.116001 # O HOH
491 1 1 0.000000 52.554001 3.988000 48.174999 # AL UNL
492 2 1 0.000000 49.605000 8.597000 47.442001 # AL UNL
493 3 2 0.000000 52.048000 3.949000 42.243999 # O HOH
494 4 2 0.000000 53.942001 2.656000 54.379002 # O HOH
495 5 2 0.000000 46.073002 14.588000 49.865002 # O HOH
496 1 1 0.000000 53.102001 7.690000 29.687000 # AL UNL
497 2 1 0.000000 57.513000 6.170000 32.636002 # AL UNL
498 3 2 0.000000 54.278999 2.441000 27.139000 # O HOH
499 4 2 0.000000 50.601002 13.441000 31.379999 # O HOH
500 5 2 0.000000 62.556999 7.185000 37.904999 # O HOH

 Bonds

1 1 16 157
2 1 47 431

